CRYSTAL
PRIMVEC
   0.000000000   1.785000000   1.785000000
   1.785000000   0.000000000   1.785000000
   1.785000000   1.785000000   0.000000000
PRIMCOORD
2 1
B   0.000000000   0.000000000   0.000000000
N   0.892500000   0.892500000   0.892500000
